
#(C) 2020 by FIZ Karlsruhe - Leibniz Institute for Information Infrastructure.  All rights reserved.
data_78562-ICSD
_database_code_ICSD 78562
_audit_creation_date 1996-10-14
_audit_update_record 2003-04-01
_chemical_name_common 'Dilithium phyllo-disilicate'
_chemical_formula_structural 'Li2 (Si2 O5)'
_chemical_formula_sum 'Li2 O5 Si2'
_exptl_crystal_density_diffrn 2.47
_citation_title

;
Extended structures in crystalline phyllosilicates: silica ring systems in
lithium, rubidium, cesium, and cesium/lithium phyllosilicate
;
loop_
_citation_id
_citation_journal_full
_citation_year
_citation_journal_volume
_citation_page_first
_citation_page_last
_citation_journal_id_ASTM
primary 'Journal of Non-Crystalline Solids' 1994 176 164 171 JNCSBJ
loop_
_citation_author_citation_id
_citation_author_name
primary 'de Jong, B.H.W.S.'
primary 'Slaats, P.G.G.'
primary 'Super, H.T.J.'
primary 'Veldman, N.'
primary 'Spek, A.L.'
_cell_length_a 5.807(2)
_cell_length_b 14.582(7)
_cell_length_c 4.773(3)
_cell_angle_alpha 90.
_cell_angle_beta 90.
_cell_angle_gamma 90.
_cell_volume 404.17
_cell_formula_units_Z 4
_space_group_name_H-M_alt 'C c c 2'
_space_group_IT_number 37
loop_
_space_group_symop_id
_space_group_symop_operation_xyz
1 'x, -y, z+1/2'
2 '-x, y, z+1/2'
3 '-x, -y, z'
4 'x, y, z'
5 'x+1/2, -y+1/2, z+1/2'
6 '-x+1/2, y+1/2, z+1/2'
7 '-x+1/2, -y+1/2, z'
8 'x+1/2, y+1/2, z'
loop_
_atom_type_symbol
_atom_type_oxidation_number
Si4+ 4
O2- -2
Li1+ 1
loop_
_atom_site_label
_atom_site_type_symbol
_atom_site_symmetry_multiplicity
_atom_site_Wyckoff_symbol
_atom_site_fract_x
_atom_site_fract_y
_atom_site_fract_z
_atom_site_B_iso_or_equiv
_atom_site_occupancy
Si1 Si4+ 8 d 0.1552(3) 0.14836(12) 0.1352 . 1.
O1 O2- 8 d 0.3295(9) 0.0718(3) 0.0491(13) . 1.
O2 O2- 8 d 0.0932(8) 0.1377(3) 0.4785(14) . 1.
O3 O2- 4 c 0.25 0.25 0.0781(18) . 1.
Li1 Li1+ 8 d 0.346(2) 0.0584(8) 0.625(5) . 1.
#End of TTdata_78562-ICSD