
#(C) 2020 by FIZ Karlsruhe - Leibniz Institute for Information Infrastructure.  All rights reserved.
data_100402-ICSD
_database_code_ICSD 100402
_audit_creation_date 1981-12-31
_chemical_name_common 'Lithium catena-silicate'
_chemical_formula_structural 'Li2 Si O3'
_chemical_formula_sum 'Li2 O3 Si1'
_chemical_name_structure_type Na2SiO3
_exptl_crystal_density_diffrn 2.53
_citation_title
'Verfeinerung der Kristallstrukturen von Li2 Si O3 und Li2 Ge O3'
loop_
_citation_id
_citation_journal_full
_citation_year
_citation_journal_volume
_citation_page_first
_citation_page_last
_citation_journal_id_ASTM
primary 'Zeitschrift fuer Kristallographie' 1981 154 77 81 ZEKRDZ
loop_
_citation_author_citation_id
_citation_author_name
primary 'Voellenkle, H.'
_cell_length_a 9.396(1)
_cell_length_b 5.396(1)
_cell_length_c 4.661(1)
_cell_angle_alpha 90.
_cell_angle_beta 90.
_cell_angle_gamma 90.
_cell_volume 236.32
_cell_formula_units_Z 4
_space_group_name_H-M_alt 'C m c 21'
_space_group_IT_number 36
loop_
_space_group_symop_id
_space_group_symop_operation_xyz
1 'x, -y, z+1/2'
2 '-x, -y, z+1/2'
3 '-x, y, z'
4 'x, y, z'
5 'x+1/2, -y+1/2, z+1/2'
6 '-x+1/2, -y+1/2, z+1/2'
7 '-x+1/2, y+1/2, z'
8 'x+1/2, y+1/2, z'
loop_
_atom_type_symbol
_atom_type_oxidation_number
Li1+ 1
Si4+ 4
O2- -2
loop_
_atom_site_label
_atom_site_type_symbol
_atom_site_symmetry_multiplicity
_atom_site_Wyckoff_symbol
_atom_site_fract_x
_atom_site_fract_y
_atom_site_fract_z
_atom_site_B_iso_or_equiv
_atom_site_occupancy
Li1 Li1+ 8 b 0.1738(3) 0.3445(9) 0.0060(13) 0.0126 1.
Si1 Si4+ 4 a 0 0.1709(1) 0.5 . 1.
O1 O2- 4 a 0 0.1129(2) 0.8542(3) . 1.
O2 O2- 8 b 0.1443(1) 0.3087(2) 0.4193(2) . 1.
loop_
_atom_site_aniso_label
_atom_site_aniso_type_symbol
_atom_site_aniso_U_11
_atom_site_aniso_U_22
_atom_site_aniso_U_33
_atom_site_aniso_U_12
_atom_site_aniso_U_13
_atom_site_aniso_U_23
Si1 Si4+ 0.0049(2) 0.0045(2) 0.0038(2) 0 0 0.0004(2)
O1 O2- 0.0117(6) 0.0060(5) 0.0046(5) 0 0 0.0007(4)
O2 O2- 0.0067(4) 0.0079(4) 0.0093(4) -.0014(3) 0.0007(3) 0.0004(4)
#End of TTdata_100402-ICSD