
#(C) 2020 by FIZ Karlsruhe - Leibniz Institute for Information Infrastructure.  All rights reserved.
data_28192-ICSD
_database_code_ICSD 28192
_audit_creation_date 1980-01-01
_audit_update_record 1985-05-22
_chemical_name_common 'Lithium catena-silicate'
_chemical_formula_structural 'Li2 Si O3'
_chemical_formula_sum 'Li2 O3 Si1'
_chemical_name_structure_type Na2SiO3
_exptl_crystal_density_diffrn 2.52
_citation_title 'Crystal Structure of Lithium Metasilicate Li2 Si O3'
loop_
_citation_id
_citation_journal_full
_citation_year
_citation_journal_volume
_citation_page_first
_citation_page_last
_citation_journal_id_ASTM
primary 'Doklady Akademii Nauk SSSR' 1968 178 1309 1312 DANKAS
loop_
_citation_author_citation_id
_citation_author_name
primary 'Maksimov, B.A.'
primary 'Kharitonov, Yu.A.'
primary 'Ilyukhin, V.V.'
primary 'Belov, N.V.'
_cell_length_a 9.38
_cell_length_b 5.4
_cell_length_c 4.68
_cell_angle_alpha 90.
_cell_angle_beta 90.
_cell_angle_gamma 90.
_cell_volume 237.05
_cell_formula_units_Z 4
_space_group_name_H-M_alt 'C m c 21'
_space_group_IT_number 36
loop_
_space_group_symop_id
_space_group_symop_operation_xyz
1 'x, -y, z+1/2'
2 '-x, -y, z+1/2'
3 '-x, y, z'
4 'x, y, z'
5 'x+1/2, -y+1/2, z+1/2'
6 '-x+1/2, -y+1/2, z+1/2'
7 '-x+1/2, y+1/2, z'
8 'x+1/2, y+1/2, z'
loop_
_atom_type_symbol
_atom_type_oxidation_number
Li1+ 1
Si4+ 4
O2- -2
loop_
_atom_site_label
_atom_site_type_symbol
_atom_site_symmetry_multiplicity
_atom_site_Wyckoff_symbol
_atom_site_fract_x
_atom_site_fract_y
_atom_site_fract_z
_atom_site_B_iso_or_equiv
_atom_site_occupancy
Li1 Li1+ 8 b 0.17 0.33 0 0.1 1.
Si1 Si4+ 4 a 0 0.167 0.496 0.1 1.
O1 O2- 8 b 0.147 0.31 0.406 0.1 1.
O2 O2- 4 a 0 0.108 0.845 0.1 1.
#End of TTdata_28192-ICSD