
#(C) 2020 by FIZ Karlsruhe - Leibniz Institute for Information Infrastructure.  All rights reserved.
data_15414-ICSD
_database_code_ICSD 15414
_audit_creation_date 1980-01-01
_audit_update_record 2012-02-01
_chemical_name_common 'Dilithium phyllo-disilicate'
_chemical_formula_structural 'Li2 (Si2 O5)'
_chemical_formula_sum 'Li2 O5 Si2'
_chemical_name_structure_type Li2Si2O5(Cc)
_exptl_crystal_density_diffrn 2.44
_citation_title

;
Untersuchungen an Schichtsilikaten des Formeltyps Am (Si2 O5)n. I. Die
Kristallstruktur der Zimmertemperaturform des Li2 Si2 O5
;
loop_
_citation_id
_citation_journal_full
_citation_year
_citation_journal_volume
_citation_page_first
_citation_page_last
_citation_journal_id_ASTM
primary 'Acta Crystallographica' 1961 14 389 395 ACCRA9
loop_
_citation_author_citation_id
_citation_author_name
primary 'Liebau, F.'
_cell_length_a 5.82
_cell_length_b 14.66
_cell_length_c 4.79
_cell_angle_alpha 90.
_cell_angle_beta 90.
_cell_angle_gamma 90.
_cell_volume 408.69
_cell_formula_units_Z 4
_space_group_name_H-M_alt 'C 1 c 1'
_space_group_IT_number 9
loop_
_space_group_symop_id
_space_group_symop_operation_xyz
1 'x, -y, z+1/2'
2 'x, y, z'
3 'x+1/2, -y+1/2, z+1/2'
4 'x+1/2, y+1/2, z'
loop_
_atom_type_symbol
_atom_type_oxidation_number
Li1+ 1
Si4+ 4
O2- -2
loop_
_atom_site_label
_atom_site_type_symbol
_atom_site_symmetry_multiplicity
_atom_site_Wyckoff_symbol
_atom_site_fract_x
_atom_site_fract_y
_atom_site_fract_z
_atom_site_B_iso_or_equiv
_atom_site_occupancy
Li1 Li1+ 4 a 0.334 0.055 0.525 . 1.
Li2 Li1+ 4 a 0.666 0.055 0.025 . 1.
Si1 Si4+ 4 a 0.1572 0.1485 0.879 . 1.
Si2 Si4+ 4 a 0.8455 0.1485 0.379 . 1.
O1 O2- 4 a 0.276 0.25 0.943 . 1.
O2 O2- 4 a 0.1 0.14 0.54 . 1.
O3 O2- 4 a 0.9 0.14 0.04 . 1.
O4 O2- 4 a 0.3325 0.071 0.948 . 1.
O5 O2- 4 a 0.6675 0.071 0.448 . 1.
#End of TTdata_15414-ICSD