
#(C) 2020 by FIZ Karlsruhe - Leibniz Institute for Information Infrastructure.  All rights reserved.
data_8222-ICSD
_database_code_ICSD 8222
_audit_creation_date 1980-01-01
_chemical_name_common 'Lithium silicate'
_chemical_formula_structural 'Li4 Si O4'
_chemical_formula_sum 'Li4 O4 Si1'
_exptl_crystal_density_diffrn 2.41
_citation_title 'Crystal structure of ordered Li4 Si O4'
loop_
_citation_id
_citation_journal_full
_citation_year
_citation_journal_volume
_citation_page_first
_citation_page_last
_citation_journal_id_ASTM
primary

;
Acta Crystallographica, Section B: Structural Crystallography and Crystal
Chemistry
; 1979 35 2479 2487 ACBCAR
loop_
_citation_author_citation_id
_citation_author_name
primary 'Duc Tran Qui'
primary 'Shannon, R.D.'
primary 'Chen, H.-Y.'
primary 'Iijima, S.'
primary 'Baur, W.H.'
_cell_length_a 11.546(3)
_cell_length_b 6.090(2)
_cell_length_c 16.645(3)
_cell_angle_alpha 90.
_cell_angle_beta 99.5
_cell_angle_gamma 90.
_cell_volume 1154.34
_cell_formula_units_Z 14
_space_group_name_H-M_alt 'P 1 21/m 1'
_space_group_IT_number 11
loop_
_space_group_symop_id
_space_group_symop_operation_xyz
1 'x, -y+1/2, z'
2 '-x, -y, -z'
3 '-x, y+1/2, -z'
4 'x, y, z'
loop_
_atom_type_symbol
_atom_type_oxidation_number
Si4+ 4
O2- -2
Li1+ 1
loop_
_atom_site_label
_atom_site_type_symbol
_atom_site_symmetry_multiplicity
_atom_site_Wyckoff_symbol
_atom_site_fract_x
_atom_site_fract_y
_atom_site_fract_z
_atom_site_B_iso_or_equiv
_atom_site_occupancy
Si1 Si4+ 2 e 0.3416(2) 0.25 0.0056(2) 0.82 1.
Si2 Si4+ 2 e 0.7540(2) 0.25 0.1386(2) 0.74 1.
Si3 Si4+ 2 e 0.4772(2) 0.25 0.7152(2) 0.37 1.
Si4 Si4+ 2 e 0.2003(2) 0.25 0.2924(2) 0.33 1.
Si5 Si4+ 2 e 0.0406(2) 0.25 0.5773(2) 0.83 1.
Si6 Si4+ 2 e 0.8941(2) 0.25 0.8567(2) 0.3 1.
Si7 Si4+ 2 e 0.6145(2) 0.25 0.4280(2) 0.48 1.
O1 O2- 4 f 0.3560(3) 0.0265(8) 0.0579(3) 0.53 1.
O2 O2- 4 f 0.7860(4) 0.0342(8) 0.1956(3) 1.45 1.
O3 O2- 4 f 0.4994(3) 0.0305(8) 0.7715(3) 1.25 1.
O4 O2- 4 f 0.2185(3) 0.0283(8) 0.3484(3) 0.7 1.
O5 O2- 4 f 0.0668(4) 0.0316(8) 0.6344(3) 1.36 1.
O6 O2- 4 f 0.9269(3) 0.0330(7) 0.9175(2) 0.38 1.
O7 O2- 4 f 0.6530(3) 0.0283(7) 0.4811(2) 0.37 1.
O8 O2- 2 e 0.1998(5) 0.25 0.9638(4) 0.92 1.
O9 O2- 2 e 0.6186(5) 0.25 0.0977(4) 0.6 1.
O10 O2- 2 e 0.3352(5) 0.25 0.6744(4) 0.45 1.
O11 O2- 2 e 0.0626(5) 0.25 0.2447(4) 0.93 1.
O12 O2- 2 e 0.9082(5) 0.25 0.5278(4) 0.71 1.
O13 O2- 2 e 0.7611(5) 0.25 0.8143(4) 0.95 1.
O14 O2- 2 e 0.4745(5) 0.25 0.3985(4) 0.87 1.
O15 O2- 2 e 0.4194(4) 0.25 0.9341(4) 0.09 1.
O16 O2- 2 e 0.8436(5) 0.25 0.0682(4) 0.88 1.
O17 O2- 2 e 0.5526(6) 0.25 0.6386(4) 1.4 1.
O18 O2- 2 e 0.2842(5) 0.25 0.2228(4) 1.2 1.
O19 O2- 2 e 0.1308(5) 0.25 0.5114(4) 0.83 1.
O20 O2- 2 e 0.9918(5) 0.25 0.7957(4) 0.73 1.
O21 O2- 2 e 0.6967(5) 0.25 0.3561(4) 0.49 1.
Li1 Li1+ 4 f 0.3823(8) 0.0072(19) 0.4068(6) 0.88 1.
Li2 Li1+ 4 f 0.8123(8) 0.0006(20) 0.5448(6) 1.08 1.
Li3 Li1+ 4 f 0.6605(8) 0.0112(20) 0.8270(6) 1.03 1.
Li4 Li1+ 4 f 0.5255(8) 0.9981(20) 0.1173(6) 1.26 1.
Li5 Li1+ 2 e 0.2722(15) 0.25 0.8558(12) 2.26 1.
Li6 Li1+ 2 e 0.4176(15) 0.25 0.5491(12) 2.58 1.
Li7 Li1+ 2 e 0.1321(11) 0.25 0.1464(9) 0.2 1.
Li8 Li1+ 2 e 0.9695(18) 0.25 0.4271(14) 3.55 1.
Li9 Li1+ 2 e 0.4490(12) 0.25 0.278(1) 1.22 1.
Li10 Li1+ 2 e 0.7272(12) 0.25 0.6977(10) 0.9 1.
Li11 Li1+ 2 e 0.5940(13) 0.25 0.9794(10) 1.13 1.
Li12 Li1+ 4 f 0.1962(7) 0.9631(17) 0.0192(6) 0.33 1.
Li13 Li1+ 4 f 0.3309(8) 0.9681(20) 0.7279(7) 1.43 1.
Li14 Li1+ 4 f 0.9515(9) 0.0298(20) 0.7108(7) 1.68 1.
Li15 Li1+ 4 f 0.0790(14) 0.0278(33) 0.8663(10) 4.79 1.
Li16 Li1+ 4 f 0.2373(9) 0.0379(20) 0.5977(7) 1.73 1.
Li17 Li1+ 2 e 0.1407(15) 0.25 0.7360(12) 2.31 1.
Li18 Li1+ 2 e 0.0082(16) 0.25 0.0076(12) 2.3 1.
Li19 Li1+ 2 e 0.8701(19) 0.25 0.2956(15) 4.04 1.
#End of TTdata_8222-ICSD