
#(C) 2020 by FIZ Karlsruhe - Leibniz Institute for Information Infrastructure.  All rights reserved.
data_25752-ICSD
_database_code_ICSD 25752
_audit_creation_date 1980-01-01
_chemical_name_common 'Hexalithium disilicate'
_chemical_formula_structural 'Li6 (Si2 O7)'
_chemical_formula_sum 'Li6 O7 Si2'
_exptl_crystal_density_diffrn 2.4
_citation_title 'Die Kristallstruktur der Verbindung Li6 (Si2 O7)'
loop_
_citation_id
_citation_journal_full
_citation_year
_citation_journal_volume
_citation_page_first
_citation_page_last
_citation_journal_id_ASTM
primary 'Monatshefte fuer Chemie' 1969 100 295 303 MOCMB7
loop_
_citation_author_citation_id
_citation_author_name
primary 'Voellenkle, H.'
primary 'Wittmann, A.'
primary 'Nowotny, H.N.'
_cell_length_a 7.715
_cell_length_b 7.715
_cell_length_c 4.88
_cell_angle_alpha 90.
_cell_angle_beta 90.
_cell_angle_gamma 90.
_cell_volume 290.46
_cell_formula_units_Z 2
_space_group_name_H-M_alt 'P -4 21 m'
_space_group_IT_number 113
loop_
_space_group_symop_id
_space_group_symop_operation_xyz
1 '-y+1/2, -x+1/2, z'
2 'y, -x, -z'
3 'y+1/2, x+1/2, z'
4 '-y, x, -z'
5 'x+1/2, -y+1/2, -z'
6 '-x, -y, z'
7 '-x+1/2, y+1/2, -z'
8 'x, y, z'
loop_
_atom_type_symbol
_atom_type_oxidation_number
Si4+ 4
O2- -2
Li1+ 1
loop_
_atom_site_label
_atom_site_type_symbol
_atom_site_symmetry_multiplicity
_atom_site_Wyckoff_symbol
_atom_site_fract_x
_atom_site_fract_y
_atom_site_fract_z
_atom_site_B_iso_or_equiv
_atom_site_occupancy
Si1 Si4+ 4 e 0.3563(7) 0.8563(7) 0.8242(7) 0.33 1.
O1 O2- 2 c 0 0.5 0.3043(31) 0.88 1.
O2 O2- 4 e 0.3675(20) 0.8675(20) 0.1549(19) 0.81 1.
O3 O2- 8 f 0.0969(10) 0.1644(12) 0.2915(16) 1.36 1.
Li1 Li1+ 4 e 0.1078(46) 0.6078(46) 0.6862(53) 0.96 1.
Li2 Li1+ 8 f 0.0760(28) 0.1390(31) 0.7004(45) 1.62 1.
#End of TTdata_25752-ICSD