
#(C) 2021 by FIZ Karlsruhe - Leibniz Institute for Information Infrastructure.  All rights reserved.
data_18127-ICSD
_database_code_ICSD 18127
_audit_creation_date 1980-01-01
_audit_update_record 2015-08-01
_chemical_name_common 'Calcium carbonate - mue'
_chemical_formula_structural 'Ca (C O3)'
_chemical_formula_sum 'C1 Ca1 O3'
_exptl_crystal_density_diffrn 2.66
_citation_title 'Struktur und Fehlordnung des Vaterits'
loop_
_citation_id
_citation_journal_full
_citation_year
_citation_journal_volume
_citation_page_first
_citation_page_last
_citation_journal_id_ASTM
primary 'Zeitschrift fuer Kristallographie' 1969 128 183 212 ZEKRDZ
loop_
_citation_author_citation_id
_citation_author_name
primary 'Meyer, H.J.'
_cell_length_a 7.148(8)
_cell_length_b 7.148(8)
_cell_length_c 16.949(36)
_cell_angle_alpha 90.
_cell_angle_beta 90.
_cell_angle_gamma 120.
_cell_volume 749.97
_cell_formula_units_Z 12
_space_group_name_H-M_alt 'P 63/m m c'
_space_group_IT_number 194
loop_
_space_group_symop_id
_space_group_symop_operation_xyz
1 'x, x-y, -z+1/2'
2 '-x+y, y, -z+1/2'
3 '-y, -x, -z+1/2'
4 '-x+y, -x, -z+1/2'
5 '-y, x-y, -z+1/2'
6 'x, y, -z+1/2'
7 '-x, -x+y, z+1/2'
8 'x-y, -y, z+1/2'
9 'y, x, z+1/2'
10 'x-y, x, z+1/2'
11 'y, -x+y, z+1/2'
12 '-x, -y, z+1/2'
13 '-x, -x+y, -z'
14 'x-y, -y, -z'
15 'y, x, -z'
16 'x-y, x, -z'
17 'y, -x+y, -z'
18 '-x, -y, -z'
19 'x, x-y, z'
20 '-x+y, y, z'
21 '-y, -x, z'
22 '-x+y, -x, z'
23 '-y, x-y, z'
24 'x, y, z'
loop_
_atom_type_symbol
_atom_type_oxidation_number
Ca2+ 2
C4+ 4
O2- -2
loop_
_atom_site_label
_atom_site_type_symbol
_atom_site_symmetry_multiplicity
_atom_site_Wyckoff_symbol
_atom_site_fract_x
_atom_site_fract_y
_atom_site_fract_z
_atom_site_B_iso_or_equiv
_atom_site_occupancy
Ca1 Ca2+ 2 a 0 0 0 . 0.857
Ca2 Ca2+ 12 k 0.0135(30) -.0135(30) 0 . 0.857
C1 C4+ 24 l 0.3134 0.3806 0.125 . .5
O1 O2- 24 l 0.291(10) 0.5255(85) 0.125 . .5
O2 O2- 24 l 0.325(10) 0.308(10) 0.0548(13) . 1.
#End of TTdata_18127-ICSD