
#(C) 2021 by FIZ Karlsruhe - Leibniz Institute for Information Infrastructure.  All rights reserved.
data_257275-ICSD
_database_code_ICSD 257275
_audit_creation_date 2018-02-01
_chemical_name_common 'Cobalt hydroxide - beta phase'
_chemical_formula_structural 'Co (O H)2'
_chemical_formula_sum 'H2 Co1 O2'
_chemical_name_structure_type Brucite#Mg(OH)2
_exptl_crystal_density_diffrn 3.8
_diffrn_ambient_temperature 3.5
_citation_title

;
The magnetic structure of beta-cobalt hydroxide and the effect of
spin-orientation
;
loop_
_citation_id
_citation_journal_full
_citation_year
_citation_journal_volume
_citation_page_first
_citation_page_last
_citation_journal_id_ASTM
primary 'Physical Chemistry Chemical Physics' 2016 18 30407 30414 PPCPFQ
loop_
_citation_author_citation_id
_citation_author_name
primary 'Hunt, Diego'
primary 'Garbarino, Gaston'
primary 'Rodriguez-Velamazan, Jose Alberto'
primary 'Ferrari, Valeria'
primary 'Jobbagy, Matias'
primary 'Scherlis, Damian A.'
_cell_length_a 3.18098(4)
_cell_length_b 3.18098(4)
_cell_length_c 4.63405(9)
_cell_angle_alpha 90.
_cell_angle_beta 90.
_cell_angle_gamma 120.
_cell_volume 40.61
_cell_formula_units_Z 1
_space_group_name_H-M_alt 'P -3 m 1'
_space_group_IT_number 164
loop_
_space_group_symop_id
_space_group_symop_operation_xyz
1 'x-y, -y, -z'
2 '-x, -x+y, -z'
3 'y, x, -z'
4 'x-y, x, -z'
5 'y, -x+y, -z'
6 '-x, -y, -z'
7 '-x+y, y, z'
8 'x, x-y, z'
9 '-y, -x, z'
10 '-x+y, -x, z'
11 '-y, x-y, z'
12 'x, y, z'
loop_
_atom_type_symbol
_atom_type_oxidation_number
Co2+ 2
O2- -2
H1+ 1
loop_
_atom_site_label
_atom_site_type_symbol
_atom_site_symmetry_multiplicity
_atom_site_Wyckoff_symbol
_atom_site_fract_x
_atom_site_fract_y
_atom_site_fract_z
_atom_site_B_iso_or_equiv
_atom_site_occupancy
Co1 Co2+ 1 a 0 0 0 0.206(74) 1.
O1 O2- 2 d 0.3333 0.6667 0.22727(49) 0.729(23) 1.
H1 H1+ 2 d 0.3333 0.6667 0.42817(79) 2.875(52) 1.
#End of TTdata_257275-ICSD