
#(C) 2020 by FIZ Karlsruhe - Leibniz Institute for Information Infrastructure.  All rights reserved.
data_104488-ICSD
_database_code_ICSD 104488
_audit_creation_date 2004-10-01
_audit_update_record 2019-02-01
_chemical_name_common 'Iridium lithium (3/1)'
_chemical_formula_structural 'Ir3 Li'
_chemical_formula_sum 'Ir3 Li1'
_exptl_crystal_density_diffrn 17.95
_citation_title 'The crystal structure of IrLi, Ir3Li and LiRh3'
loop_
_citation_id
_citation_journal_full
_citation_year
_citation_journal_volume
_citation_page_first
_citation_page_last
_citation_journal_id_ASTM
primary 'Journal of the Less-Common Metals' 1976 50 279 282 JCOMAH
loop_
_citation_author_citation_id
_citation_author_name
primary 'Donkersloot, H.C.'
primary 'van Vucht, J.H.N.'
_cell_length_a 2.6726
_cell_length_b 8.6946
_cell_length_c 4.6703
_cell_angle_alpha 90.
_cell_angle_beta 90.
_cell_angle_gamma 90.
_cell_volume 108.52
_cell_formula_units_Z 2
_space_group_name_H-M_alt 'I m m 2'
_space_group_IT_number 44
loop_
_space_group_symop_id
_space_group_symop_operation_xyz
1 'x, -y, z'
2 '-x, y, z'
3 '-x, -y, z'
4 'x, y, z'
5 'x+1/2, -y+1/2, z+1/2'
6 '-x+1/2, y+1/2, z+1/2'
7 '-x+1/2, -y+1/2, z+1/2'
8 'x+1/2, y+1/2, z+1/2'
loop_
_atom_type_symbol
_atom_type_oxidation_number
Ir0+ 0
Li0+ 0
loop_
_atom_site_label
_atom_site_type_symbol
_atom_site_symmetry_multiplicity
_atom_site_Wyckoff_symbol
_atom_site_fract_x
_atom_site_fract_y
_atom_site_fract_z
_atom_site_B_iso_or_equiv
_atom_site_occupancy
Ir1 Ir0+ 2 b 0 0.5 0 . 1.
Ir2 Ir0+ 4 d 0 0.7547 0.3075 . 1.
Li1 Li0+ 2 a 0 0 0.981 . 1.
#End of TTdata_104488-ICSD