
#(C) 2020 by FIZ Karlsruhe - Leibniz Institute for Information Infrastructure.  All rights reserved.
data_251567-ICSD
_database_code_ICSD 251567
_audit_creation_date 2015-08-01
_chemical_name_common 'Iridium(IV) oxide (1/2)'
_chemical_formula_structural 'Ir O2'
_chemical_formula_sum 'Ir1 O2'
_chemical_name_structure_type PdF2(cP12)
_exptl_crystal_density_diffrn 12.79
_diffrn_ambient_temperature 293.
_citation_title

;
Synthesis, crystal structure, and electronic properties of high-pressure
PdF2-type oxides MO2 (M = Ru, Rh, Os, Ir, Pt)
;
loop_
_citation_id
_citation_journal_full
_citation_year
_citation_journal_volume
_citation_page_first
_citation_page_last
_citation_journal_id_ASTM
primary 'Inorganic Chemistry' 2014 53 11616 11625 INOCAJ
loop_
_citation_author_citation_id
_citation_author_name
primary 'Shirako, Yuichi'
primary 'Wang, Xia'
primary 'Tsujimoto, Yoshihiro'
primary 'Tanaka, Kie'
primary 'Guo, Yanfeng'
primary 'Matsushita, Yoshitaka'
primary 'Nemoto, Yoshihiro'
primary 'Katsuya, Yoshio'
primary 'Shi, Youguo'
primary 'Mori, Daisuke'
primary 'Kojitani, Hiroshi'
primary 'Yamaura, Kazunari'
primary 'Inaguma, Yoshiyuki'
primary 'Akaogi, Masaki'
_cell_length_a 4.89057(2)
_cell_length_b 4.89057(2)
_cell_length_c 4.89057(2)
_cell_angle_alpha 90.
_cell_angle_beta 90.
_cell_angle_gamma 90.
_cell_volume 116.97
_cell_formula_units_Z 4
_space_group_name_H-M_alt 'P a -3'
_space_group_IT_number 205
loop_
_space_group_symop_id
_space_group_symop_operation_xyz
1 '-z+1/2, x+1/2, y'
2 'z+1/2, x, -y+1/2'
3 'z, -x+1/2, y+1/2'
4 '-z, -x, -y'
5 'y, -z+1/2, x+1/2'
6 '-y+1/2, z+1/2, x'
7 'y+1/2, z, -x+1/2'
8 '-y, -z, -x'
9 'x+1/2, y, -z+1/2'
10 'x, -y+1/2, z+1/2'
11 '-x+1/2, y+1/2, z'
12 '-x, -y, -z'
13 'z+1/2, -x+1/2, -y'
14 '-z+1/2, -x, y+1/2'
15 '-z, x+1/2, -y+1/2'
16 'z, x, y'
17 '-y, z+1/2, -x+1/2'
18 'y+1/2, -z+1/2, -x'
19 '-y+1/2, -z, x+1/2'
20 'y, z, x'
21 '-x+1/2, -y, z+1/2'
22 '-x, y+1/2, -z+1/2'
23 'x+1/2, -y+1/2, -z'
24 'x, y, z'
loop_
_atom_type_symbol
_atom_type_oxidation_number
Ir4+ 4
O2- -2
loop_
_atom_site_label
_atom_site_type_symbol
_atom_site_symmetry_multiplicity
_atom_site_Wyckoff_symbol
_atom_site_fract_x
_atom_site_fract_y
_atom_site_fract_z
_atom_site_B_iso_or_equiv
_atom_site_occupancy
Ir1 Ir4+ 4 a 0 0 0 0.385(1) 1.
O1 O2- 8 c 0.3458(2) 0.3458(2) 0.3458(2) 0.433(14) 1.
#End of TTdata_251567-ICSD