
#(C) 2020 by FIZ Karlsruhe - Leibniz Institute for Information Infrastructure.  All rights reserved.
data_84577-ICSD
_database_code_ICSD 84577
_audit_creation_date 1999-01-19
_chemical_name_common 'Iridium(IV) oxide'
_chemical_formula_structural 'Ir O2'
_chemical_formula_sum 'Ir1 O2'
_chemical_name_structure_type Rutile#TiO2
_exptl_crystal_density_diffrn 11.67
_citation_title 'Structural studies of rutile-type metal dioxides'
loop_
_citation_id
_citation_journal_full
_citation_year
_citation_journal_volume
_citation_page_first
_citation_page_last
_citation_journal_id_ASTM
primary 'Acta Crystallographica, Section B: Structural Science' 1997 53 373 380
ASBSDK
loop_
_citation_author_citation_id
_citation_author_name
primary 'Bolzan, A.A.'
primary 'Fong, C.'
primary 'Kennedy, B.J.'
primary 'Howard, C.J.'
_cell_length_a 4.5051(3)
_cell_length_b 4.5051(3)
_cell_length_c 3.1586(2)
_cell_angle_alpha 90.
_cell_angle_beta 90.
_cell_angle_gamma 90.
_cell_volume 64.11
_cell_formula_units_Z 2
_space_group_name_H-M_alt 'P 42/m n m'
_space_group_IT_number 136
loop_
_space_group_symop_id
_space_group_symop_operation_xyz
1 '-y+1/2, x+1/2, -z+1/2'
2 'y+1/2, -x+1/2, -z+1/2'
3 'y, x, -z'
4 '-y, -x, -z'
5 'y+1/2, -x+1/2, z+1/2'
6 '-y+1/2, x+1/2, z+1/2'
7 '-y, -x, z'
8 'y, x, z'
9 'x+1/2, -y+1/2, -z+1/2'
10 '-x+1/2, y+1/2, -z+1/2'
11 'x, y, -z'
12 '-x, -y, -z'
13 '-x+1/2, y+1/2, z+1/2'
14 'x+1/2, -y+1/2, z+1/2'
15 '-x, -y, z'
16 'x, y, z'
loop_
_atom_type_symbol
_atom_type_oxidation_number
Ir4+ 4
O2- -2
loop_
_atom_site_label
_atom_site_type_symbol
_atom_site_symmetry_multiplicity
_atom_site_Wyckoff_symbol
_atom_site_fract_x
_atom_site_fract_y
_atom_site_fract_z
_atom_site_B_iso_or_equiv
_atom_site_occupancy
Ir1 Ir4+ 2 a 0 0 0 . 1.
O1 O2- 4 f 0.3077(3) 0.3077(3) 0 . 1.
loop_
_atom_site_aniso_label
_atom_site_aniso_type_symbol
_atom_site_aniso_U_11
_atom_site_aniso_U_22
_atom_site_aniso_U_33
_atom_site_aniso_U_12
_atom_site_aniso_U_13
_atom_site_aniso_U_23
Ir1 Ir4+ 0.0110(5) 0.0110(5) 0.0064(8) -.0004(4) 0 0
O1 O2- 0.0121(6) 0.0121(6) 0.0070(9) -.0029(4) 0 0
#End of TTdata_84577-ICSD