
#(C) 2020 by FIZ Karlsruhe - Leibniz Institute for Information Infrastructure.  All rights reserved.
data_231010-ICSD
_database_code_ICSD 231010
_audit_creation_date 2020-02-01
_chemical_name_common 'Dilithium dimagnesium(III) tetraoxide'
_chemical_formula_structural 'Li2 Mn2 O4'
_chemical_formula_sum 'Li2 Mn2 O4'
_chemical_name_structure_type Li2Mn2O4
_exptl_crystal_density_diffrn 4.21
_citation_title

;
Metastable Li1+deltaMn2O4 (0 <= delta <= 1) spinel phases revealed by in
operando neutron diffraction and first-principles calculations
;
loop_
_citation_id
_citation_journal_full
_citation_year
_citation_journal_volume
_citation_page_first
_citation_page_last
_citation_journal_id_ASTM
primary 'Chemistry of Materials' 2019 31 124 134 CMATEX
loop_
_citation_author_citation_id
_citation_author_name
primary 'Song, Bohang'
primary 'Veith, Gabriel M.'
primary 'Park, Jinseon'
primary 'Yoon, Mina'
primary 'Whitfield, Pamela S.'
primary 'Kirkham, Melanie J.'
primary 'Liu, Jue'
primary 'Huq, Ashfia'
_cell_length_a 5.6625(6)
_cell_length_b 5.6625(6)
_cell_length_c 9.2237(22)
_cell_angle_alpha 90.
_cell_angle_beta 90.
_cell_angle_gamma 90.
_cell_volume 295.75
_cell_formula_units_Z 4
_space_group_name_H-M_alt 'I 41/a m d Z'
_space_group_IT_number 141
loop_
_space_group_symop_id
_space_group_symop_operation_xyz
1 'y+1/4, x+3/4, -z+1/4'
2 'y+1/4, -x+3/4, -z+1/4'
3 'x, y+1/2, -z'
4 'x, -y, -z'
5 '-y+3/4, x+3/4, -z+1/4'
6 '-y+3/4, -x+3/4, -z+1/4'
7 '-x, y+1/2, -z'
8 '-x, -y, -z'
9 '-y+3/4, -x+1/4, z+3/4'
10 '-y+3/4, x+1/4, z+3/4'
11 '-x, -y+1/2, z'
12 '-x, y, z'
13 'y+1/4, -x+1/4, z+3/4'
14 'y+1/4, x+1/4, z+3/4'
15 'x, -y+1/2, z'
16 'x, y, z'
17 'y+3/4, x+1/4, -z+3/4'
18 'y+3/4, -x+1/4, -z+3/4'
19 'x+1/2, y, -z+1/2'
20 'x+1/2, -y+1/2, -z+1/2'
21 '-y+1/4, x+1/4, -z+3/4'
22 '-y+1/4, -x+1/4, -z+3/4'
23 '-x+1/2, y, -z+1/2'
24 '-x+1/2, -y+1/2, -z+1/2'
25 '-y+1/4, -x+3/4, z+1/4'
26 '-y+1/4, x+3/4, z+1/4'
27 '-x+1/2, -y, z+1/2'
28 '-x+1/2, y+1/2, z+1/2'
29 'y+3/4, -x+3/4, z+1/4'
30 'y+3/4, x+3/4, z+1/4'
31 'x+1/2, -y, z+1/2'
32 'x+1/2, y+1/2, z+1/2'
loop_
_atom_type_symbol
_atom_type_oxidation_number
Li1+ 1
Mn3+ 3
O2- -2
loop_
_atom_site_label
_atom_site_type_symbol
_atom_site_symmetry_multiplicity
_atom_site_Wyckoff_symbol
_atom_site_fract_x
_atom_site_fract_y
_atom_site_fract_z
_atom_site_U_iso_or_equiv
_atom_site_occupancy
Li1 Li1+ 4 a 0 0.75 0.125 0.0367 0.43
Li2 Li1+ 8 c 0 0 0 0.0253 0.79
Mn1 Mn3+ 8 d 0 0 0.5 0.0057 1.
O1 O2- 16 h 0 0.0168(13) 0.2587(7) 0.0025(8) 1.
#End of TTdata_231010-ICSD