
#(C) 2019 by FIZ Karlsruhe - Leibniz Institute for Information Infrastructure.  All rights reserved.
data_853-ICSD
_database_code_ICSD 853
_audit_creation_date 1980-01-01
_audit_update_record 2011-08-01
_chemical_name_systematic 'Dilithium catena-silicate'
_chemical_formula_structural 'Li2 (Si O3)'
_chemical_formula_sum 'Li2 O3 Si1'
_chemical_name_structure_type Na2SiO3
_exptl_crystal_density_diffrn 2.53
_publ_section_title
'Refinement of the crystal structure of lithium polysilicate'
loop_
_citation_id
_citation_journal_full
_citation_year
_citation_journal_volume
_citation_page_first
_citation_page_last
_citation_journal_id_ASTM
primary

;
Acta Crystallographica, Section B: Structural Crystallography and Crystal
Chemistry
; 1977 33 901 902 ACBCAR
loop_
_publ_author_name
'Hesse, K.F.'
_cell_length_a 9.392(2)
_cell_length_b 5.397(2)
_cell_length_c 4.660(1)
_cell_angle_alpha 90.
_cell_angle_beta 90.
_cell_angle_gamma 90.
_cell_volume 236.21
_cell_formula_units_Z 4
_symmetry_space_group_name_H-M 'C m c 21'
_symmetry_Int_Tables_number 36
_refine_ls_R_factor_all 0.056
loop_
_symmetry_equiv_pos_site_id
_symmetry_equiv_pos_as_xyz
1 'x, -y, z+1/2'
2 '-x, -y, z+1/2'
3 '-x, y, z'
4 'x, y, z'
5 'x+1/2, -y+1/2, z+1/2'
6 '-x+1/2, -y+1/2, z+1/2'
7 '-x+1/2, y+1/2, z'
8 'x+1/2, y+1/2, z'
loop_
_atom_type_symbol
_atom_type_oxidation_number
Si4+ 4
Li1+ 1
O2- -2
loop_
_atom_site_label
_atom_site_type_symbol
_atom_site_symmetry_multiplicity
_atom_site_Wyckoff_symbol
_atom_site_fract_x
_atom_site_fract_y
_atom_site_fract_z
_atom_site_B_iso_or_equiv
_atom_site_occupancy
_atom_site_attached_hydrogens
Si1 Si4+ 4 a 0 0.1703(4) 0.4912(45) . 1. 0
Li1 Li1+ 8 b 0.1737(9) 0.3449(18) -.0024(35) . 1. 0
O1 O2- 8 b 0.1446(6) 0.3077(6) 0.4108(9) . 1. 0
O2 O2- 4 a 0 0.1143(9) 0.8461(11) . 1. 0
loop_
_atom_site_aniso_label
_atom_site_aniso_type_symbol
_atom_site_aniso_beta_11
_atom_site_aniso_beta_22
_atom_site_aniso_beta_33
_atom_site_aniso_beta_12
_atom_site_aniso_beta_13
_atom_site_aniso_beta_23
Si1 Si4+ 0.0013(2) 0.0046(5) 0.0017(6) 0 0 -.0013(11)
Li1 Li1+ 0.0034(7) 0.0052(20) 0.0117(22) 0.0021(13) 0.0024(24) -.0033(42)
O1 O2- 0.0015(3) 0.0017(10) 0.0130(14) -.0010(5) 0.0005(6) -.0008(11)
O2 O2- 0.0034(6) 0.0025(16) 0.0068(21) 0 0 -.0007(14)
#End of TTdata_853-ICSD