
#(C) 2019 by FIZ Karlsruhe - Leibniz Institute for Information Infrastructure.  All rights reserved.
data_853-ICSD
_database_code_ICSD 853
_audit_creation_date 1980-01-01
_audit_update_record 2011-08-01
_chemical_name_systematic 'Dilithium catena-silicate'
_chemical_formula_structural 'Li2 (Si O3)'
_chemical_formula_sum 'Li2 O3 Si1'
_chemical_name_structure_type Na2SiO3
_exptl_crystal_density_diffrn 2.53
_publ_section_title
'Refinement of the crystal structure of lithium polysilicate'
loop_
_citation_id
_citation_journal_full
_citation_year
_citation_journal_volume
_citation_page_first
_citation_page_last
_citation_journal_id_ASTM
primary

;
Acta Crystallographica, Section B: Structural Crystallography and Crystal
Chemistry
; 1977 33 901 902 ACBCAR
loop_
_publ_author_name
'Hesse, K.F.'
_cell_length_a 9.392(2)
_cell_length_b 5.397(2)
_cell_length_c 4.660(1)
_cell_angle_alpha 90.
_cell_angle_beta 90.
_cell_angle_gamma 90.
_cell_volume 236.21
_cell_formula_units_Z 4
_symmetry_space_group_name_H-M 'C m c 21'
_symmetry_Int_Tables_number 36
_refine_ls_R_factor_all 0.056
loop_
_symmetry_equiv_pos_site_id
_symmetry_equiv_pos_as_xyz
1 'x, -y, z+1/2'
2 '-x, -y, z+1/2'
3 '-x, y, z'
4 'x, y, z'
5 'x+1/2, -y+1/2, z+1/2'
6 '-x+1/2, -y+1/2, z+1/2'
7 '-x+1/2, y+1/2, z'
8 'x+1/2, y+1/2, z'
loop_
_atom_type_symbol
_atom_type_oxidation_number
Si4+ 4
Li1+ 1
O2- -2
loop_
_atom_site_label
_atom_site_type_symbol
_atom_site_symmetry_multiplicity
_atom_site_Wyckoff_symbol
_atom_site_fract_x
_atom_site_fract_y
_atom_site_fract_z
_atom_site_B_iso_or_equiv
_atom_site_occupancy
_atom_site_attached_hydrogens
Si1 Si4+ 4 a 0 0.1703(4) 0.4912(45) . 1. 0
Li1 Li1+ 8 b 0.1737(9) 0.3449(18) -.0024(35) . 1. 0
O1 O2- 8 b 0.1446(6) 0.3077(6) 0.4108(9) . 1. 0
O2 O2- 4 a 0 0.1143(9) 0.8461(11) . 1. 0
loop_
_atom_site_aniso_label
_atom_site_aniso_type_symbol
_atom_site_aniso_beta_11
_atom_site_aniso_beta_22
_atom_site_aniso_beta_33
_atom_site_aniso_beta_12
_atom_site_aniso_beta_13
_atom_site_aniso_beta_23
Si1 Si4+ 0.0013(2) 0.0046(5) 0.0017(6) 0 0 -.0013(11)
Li1 Li1+ 0.0034(7) 0.0052(20) 0.0117(22) 0.0021(13) 0.0024(24) -.0033(42)
O1 O2- 0.0015(3) 0.0017(10) 0.0130(14) -.0010(5) 0.0005(6) -.0008(11)
O2 O2- 0.0034(6) 0.0025(16) 0.0068(21) 0 0 -.0007(14)
#End of TTdata_853-ICSD
#(C) 2019 by FIZ Karlsruhe - Leibniz Institute for Information Infrastructure.  All rights reserved.
data_67110-ICSD
_database_code_ICSD 67110
_audit_creation_date 1990-12-27
_audit_update_record 2011-02-01
_chemical_name_systematic 'Dilithium phyllo-disilicate'
_chemical_formula_structural 'Li2 (Si2 O5)'
_chemical_formula_sum 'Li2 O5 Si2'
_chemical_name_structure_type Li2Si2O5
_exptl_crystal_density_diffrn 2.5
_publ_section_title 'The structure of metastable lithium disilicate, Li2 Si2 O5'
loop_
_citation_id
_citation_journal_full
_citation_year
_citation_journal_volume
_citation_page_first
_citation_page_last
_citation_journal_id_ASTM
primary 'Acta Crystallographica, Section C: Crystal Structure Communications'
1990 46 363 365 ACSCEE
loop_
_publ_author_name
'Smith, R.I.'
'Howie, R.A.'
'West, A.R.'
'Aragon Pina, A.'
'Villafuerte Castrejon, M.E.'
_cell_length_a 5.683(4)
_cell_length_b 4.784(5)
_cell_length_c 14.648(13)
_cell_angle_alpha 90.
_cell_angle_beta 90.
_cell_angle_gamma 90.
_cell_volume 398.24
_cell_formula_units_Z 4
_symmetry_space_group_name_H-M 'P b c n'
_symmetry_Int_Tables_number 60
_refine_ls_R_factor_all 0.063
loop_
_symmetry_equiv_pos_site_id
_symmetry_equiv_pos_as_xyz
1 'x, -y, z+1/2'
2 '-x+1/2, y+1/2, z'
3 'x+1/2, y+1/2, -z+1/2'
4 '-x, -y, -z'
5 '-x, y, -z+1/2'
6 'x+1/2, -y+1/2, -z'
7 '-x+1/2, -y+1/2, z+1/2'
8 'x, y, z'
loop_
_atom_type_symbol
_atom_type_oxidation_number
Li1+ 1
Si4+ 4
O2- -2
loop_
_atom_site_label
_atom_site_type_symbol
_atom_site_symmetry_multiplicity
_atom_site_Wyckoff_symbol
_atom_site_fract_x
_atom_site_fract_y
_atom_site_fract_z
_atom_site_B_iso_or_equiv
_atom_site_occupancy
_atom_site_attached_hydrogens
Li1 Li1+ 8 d 0.6043(20) 0.3058(21) 0.4492(6) 1.59(13) 1. 0
Si1 Si4+ 8 d 0.0944(3) 0.3062(3) 0.3513(1) . 1. 0
O1 O2- 4 c 0 0.2438(10) 0.25 . 1. 0
O2 O2- 8 d -.0751(8) 0.2127(7) 0.4314(2) . 1. 0
O3 O2- 8 d 0.3466(7) 0.1434(6) 0.3608(2) . 1. 0
loop_
_atom_site_aniso_label
_atom_site_aniso_type_symbol
_atom_site_aniso_U_11
_atom_site_aniso_U_22
_atom_site_aniso_U_33
_atom_site_aniso_U_12
_atom_site_aniso_U_13
_atom_site_aniso_U_23
Si1 Si4+ 0.0139(3) 0.0048(4) 0.0010(1) -.0004(8) -.0012(3) -.0004(3)
O1 O2- 0.027(2) 0.0074(19) 0.0010(2) 0 -.0028(10) 0
O2 O2- -.0162(12) 0.0100(13) 0.0011(1) -.0003(23) 0.0018(7) 0.0016(7)
O3 O2- 0.0180(11) 0.0033(10) 0.0015(1) 0.0021(18) -.0025(7) 0.0010(7)
#End of TTdata_67110-ICSD
#(C) 2019 by FIZ Karlsruhe - Leibniz Institute for Information Infrastructure.  All rights reserved.
data_25752-ICSD
_database_code_ICSD 25752
_audit_creation_date 1980-01-01
_chemical_name_systematic 'Hexalithium disilicate'
_chemical_formula_structural 'Li6 (Si2 O7)'
_chemical_formula_sum 'Li6 O7 Si2'
_exptl_crystal_density_diffrn 2.4
_publ_section_title 'Die Kristallstruktur der Verbindung Li6 (Si2 O7)'
loop_
_citation_id
_citation_journal_full
_citation_year
_citation_journal_volume
_citation_page_first
_citation_page_last
_citation_journal_id_ASTM
primary 'Monatshefte fuer Chemie' 1969 100 295 303 MOCMB7
loop_
_publ_author_name
'Voellenkle, H.'
'Wittmann, A.'
'Nowotny, H.N.'
_cell_length_a 7.715
_cell_length_b 7.715
_cell_length_c 4.88
_cell_angle_alpha 90.
_cell_angle_beta 90.
_cell_angle_gamma 90.
_cell_volume 290.46
_cell_formula_units_Z 2
_symmetry_space_group_name_H-M 'P -4 21 m'
_symmetry_Int_Tables_number 113
_refine_ls_R_factor_all 0.116
loop_
_symmetry_equiv_pos_site_id
_symmetry_equiv_pos_as_xyz
1 '-y+1/2, -x+1/2, z'
2 'y, -x, -z'
3 'y+1/2, x+1/2, z'
4 '-y, x, -z'
5 'x+1/2, -y+1/2, -z'
6 '-x, -y, z'
7 '-x+1/2, y+1/2, -z'
8 'x, y, z'
loop_
_atom_type_symbol
_atom_type_oxidation_number
Si4+ 4
O2- -2
Li1+ 1
loop_
_atom_site_label
_atom_site_type_symbol
_atom_site_symmetry_multiplicity
_atom_site_Wyckoff_symbol
_atom_site_fract_x
_atom_site_fract_y
_atom_site_fract_z
_atom_site_B_iso_or_equiv
_atom_site_occupancy
_atom_site_attached_hydrogens
Si1 Si4+ 4 e 0.3563(7) 0.8563(7) 0.8242(7) 0.33 1. 0
O1 O2- 2 c 0 0.5 0.3043(31) 0.88 1. 0
O2 O2- 4 e 0.3675(20) 0.8675(20) 0.1549(19) 0.81 1. 0
O3 O2- 8 f 0.0969(10) 0.1644(12) 0.2915(16) 1.36 1. 0
Li1 Li1+ 4 e 0.1078(46) 0.6078(46) 0.6862(53) 0.96 1. 0
Li2 Li1+ 8 f 0.0760(28) 0.1390(31) 0.7004(45) 1.62 1. 0
#End of TTdata_25752-ICSD