
#(C) 2021 by FIZ Karlsruhe - Leibniz Institute for Information Infrastructure.  All rights reserved.
data_8433-ICSD
_database_code_ICSD 8433
_audit_creation_date 2020-02-01
_chemical_name_common 'Manganese carbonate'
_chemical_formula_structural 'Mn (C O3)'
_chemical_formula_sum 'C1 Mn1 O3'
_chemical_name_structure_type Calcite#CaCO3(hR10)
_exptl_crystal_density_diffrn 3.71
_diffrn_ambient_temperature 298.
_citation_title

;
Crystal structure of impurity-free rhodochrosite (MnCO$_3$) and thermal
expansion properties
;
loop_
_citation_id
_citation_journal_full
_citation_year
_citation_journal_volume
_citation_page_first
_citation_page_last
_citation_journal_id_ASTM
primary 'Physics and Chemistry of Minerals' 2020 47 1 11 PCMIDU
loop_
_citation_author_citation_id
_citation_author_name
primary 'Liang, Wen'
primary 'Li, Lin'
primary 'Li, Rui'
primary 'Yin, Yuan'
primary 'Li, Zeming'
primary 'Liu, Xiqiang'
primary 'Shan, Shuangmin'
primary 'He, Yu'
primary 'Meng, Yong'
primary 'Li, Zengsheng'
primary 'Li, Heping'
_cell_length_a 4.7754(5)
_cell_length_b 4.7754(5)
_cell_length_c 15.6484(18)
_cell_angle_alpha 90.
_cell_angle_beta 90.
_cell_angle_gamma 120.
_cell_volume 309.04
_cell_formula_units_Z 6
_space_group_name_H-M_alt 'R -3 c H'
_space_group_IT_number 167
loop_
_space_group_symop_id
_space_group_symop_operation_xyz
1 'x-y, -y, -z+1/2'
2 '-x, -x+y, -z+1/2'
3 'y, x, -z+1/2'
4 'x-y, x, -z'
5 'y, -x+y, -z'
6 '-x, -y, -z'
7 '-x+y, y, z+1/2'
8 'x, x-y, z+1/2'
9 '-y, -x, z+1/2'
10 '-x+y, -x, z'
11 '-y, x-y, z'
12 'x, y, z'
13 'x-y+2/3, -y+1/3, -z+5/6'
14 '-x+2/3, -x+y+1/3, -z+5/6'
15 'y+2/3, x+1/3, -z+5/6'
16 'x-y+2/3, x+1/3, -z+1/3'
17 'y+2/3, -x+y+1/3, -z+1/3'
18 '-x+2/3, -y+1/3, -z+1/3'
19 '-x+y+2/3, y+1/3, z+5/6'
20 'x+2/3, x-y+1/3, z+5/6'
21 '-y+2/3, -x+1/3, z+5/6'
22 '-x+y+2/3, -x+1/3, z+1/3'
23 '-y+2/3, x-y+1/3, z+1/3'
24 'x+2/3, y+1/3, z+1/3'
25 'x-y+1/3, -y+2/3, -z+1/6'
26 '-x+1/3, -x+y+2/3, -z+1/6'
27 'y+1/3, x+2/3, -z+1/6'
28 'x-y+1/3, x+2/3, -z+2/3'
29 'y+1/3, -x+y+2/3, -z+2/3'
30 '-x+1/3, -y+2/3, -z+2/3'
31 '-x+y+1/3, y+2/3, z+1/6'
32 'x+1/3, x-y+2/3, z+1/6'
33 '-y+1/3, -x+2/3, z+1/6'
34 '-x+y+1/3, -x+2/3, z+2/3'
35 '-y+1/3, x-y+2/3, z+2/3'
36 'x+1/3, y+2/3, z+2/3'
loop_
_atom_type_symbol
_atom_type_oxidation_number
Mn2+ 2
C4+ 4
O2- -2
loop_
_atom_site_label
_atom_site_type_symbol
_atom_site_symmetry_multiplicity
_atom_site_Wyckoff_symbol
_atom_site_fract_x
_atom_site_fract_y
_atom_site_fract_z
_atom_site_B_iso_or_equiv
_atom_site_occupancy
Mn1 Mn2+ 6 b 0 0 0 . 1.
C1 C4+ 6 a 0 0 0.25 . 1.
O1 O2- 18 e 0.2692(3) 0 0.25 . 1.
loop_
_atom_site_aniso_label
_atom_site_aniso_type_symbol
_atom_site_aniso_U_11
_atom_site_aniso_U_22
_atom_site_aniso_U_33
_atom_site_aniso_U_12
_atom_site_aniso_U_13
_atom_site_aniso_U_23
Mn1 Mn2+ 0.0073(4) 0.0073(4) 0.0091(4) 0.00367(18) 0. 0.
C1 C4+ 0.0091(12) 0.0091(12) 0.0057(16) 0.0045(6) 0. 0.
O1 O2- 0.0074(6) 0.0106(8) 0.0130(9) 0.0053(4) -0.0015(3) -0.0030(6)
#End of TTdata_8433-ICSD