
#(C) 2020 by FIZ Karlsruhe - Leibniz Institute for Information Infrastructure.  All rights reserved.
data_12168-ICSD
_database_code_ICSD 12168
_audit_creation_date 1980-01-01
_audit_update_record 2006-04-01
_chemical_name_common 'Sodium carbonate - HT'
_chemical_formula_structural 'Na2 (C O3)'
_chemical_formula_sum 'C1 Na2 O3'
_chemical_name_structure_type Natrite#Na2CO3(HT)
_chemical_name_mineral ''Natrite high''
_exptl_crystal_density_diffrn 2.38
_diffrn_ambient_temperature 673.
_citation_title 'Disordered structure of Na2 C O3 at 400 C'
loop_
_citation_id
_citation_journal_full
_citation_year
_citation_journal_volume
_citation_page_first
_citation_page_last
_citation_journal_id_ASTM
primary

;
Physica B+C: Physics of Condensed Matter + Atomic, Molecular and Plasma
Physics, Optics (Amsterdam)
; 1979 96 89 95 PHBCDQ
loop_
_citation_author_citation_id
_citation_author_name
primary 'de Pater, C.J.'
_cell_length_a 9.013(2)
_cell_length_b 5.237(2)
_cell_length_c 6.312(2)
_cell_angle_alpha 90.
_cell_angle_beta 96.83(2)
_cell_angle_gamma 90.
_cell_volume 295.82
_cell_formula_units_Z 4
_space_group_name_H-M_alt 'C 1 2/m 1'
_space_group_IT_number 12
loop_
_space_group_symop_id
_space_group_symop_operation_xyz
1 '-x, y, -z'
2 '-x, -y, -z'
3 'x, -y, z'
4 'x, y, z'
5 '-x+1/2, y+1/2, -z'
6 '-x+1/2, -y+1/2, -z'
7 'x+1/2, -y+1/2, z'
8 'x+1/2, y+1/2, z'
loop_
_atom_type_symbol
_atom_type_oxidation_number
Na1+ 1
C4+ 4
O2- -2
loop_
_atom_site_label
_atom_site_type_symbol
_atom_site_symmetry_multiplicity
_atom_site_Wyckoff_symbol
_atom_site_fract_x
_atom_site_fract_y
_atom_site_fract_z
_atom_site_U_iso_or_equiv
_atom_site_occupancy
Na1 Na1+ 2 a 0 0 0 0.09 1.
Na2 Na1+ 2 c 0 0 0.5 0.09 1.
Na3 Na1+ 4 i 0.167(5) 0.5 0.755(5) 0.09 1.
C1 C4+ 4 i 0.163(5) 0.5 0.251(3) 0.09 1.
O1 O2- 8 j 0.104(1) 0.303(3) 0.275(5) 0.09 1.
O2 O2- 4 i 0.283(5) 0.5 0.198(5) 0.09 1.
#End of TTdata_12168-ICSD