
#(C) 2021 by FIZ Karlsruhe - Leibniz Institute for Information Infrastructure.  All rights reserved.
data_130392-ICSD
_database_code_ICSD 130392
_audit_creation_date 2020-08-01
_chemical_name_common 'Nickel oxalate'
_chemical_formula_structural 'Ni C2 O4'
_chemical_formula_sum 'C2 Ni1 O4'
_exptl_crystal_density_diffrn 3.47
_diffrn_ambient_temperature 295.
_citation_title

;
Structure transformations in nickel oxalate dihydrate NiC$_2$O$_4\cdot$2H$_2$O
and nickel formate dihydrate Ni(HCO$_2$)$_2\cdot$2H$_2$O during thermal
decomposition
;
loop_
_citation_id
_citation_journal_full
_citation_year
_citation_journal_volume
_citation_page_first
_citation_page_last
_citation_journal_id_ASTM
primary 'Journal of Solid State Chemistry' 2018 266 133 142 JSSCBI
loop_
_citation_author_citation_id
_citation_author_name
primary 'Puzan, Anna N.'
primary 'Baumer, Vyacheslav N.'
primary 'Lisovytskiy, Dmytro V.'
primary 'Mateychenko, Pavel V.'
_cell_length_a 5.8294(9)
_cell_length_b 5.1685(13)
_cell_length_c 5.2712(4)
_cell_angle_alpha 90.
_cell_angle_beta 117.793(12)
_cell_angle_gamma 90.
_cell_volume 140.49
_cell_formula_units_Z 2
_space_group_name_H-M_alt 'P 1 21/n 1'
_space_group_IT_number 14
loop_
_space_group_symop_id
_space_group_symop_operation_xyz
1 '-x+1/2, y+1/2, -z+1/2'
2 '-x, -y, -z'
3 'x+1/2, -y+1/2, z+1/2'
4 'x, y, z'
loop_
_atom_type_symbol
_atom_type_oxidation_number
Ni2+ 2
O2- -2
C3+ 3
Ni2+ 2
O2- -2
C3+ 3
loop_
_atom_site_label
_atom_site_type_symbol
_atom_site_symmetry_multiplicity
_atom_site_Wyckoff_symbol
_atom_site_fract_x
_atom_site_fract_y
_atom_site_fract_z
_atom_site_U_iso_or_equiv
_atom_site_occupancy
Ni1 Ni2+ 2 a 0. 0. 0. 0. 0.559(6)
O1 O2- 4 e 0.18056 0.19464 0.38697 0. 0.559(3)
O2 O2- 4 e 0.14809 0.21191 0.79186 0. 0.559(3)
C1 C3+ 4 e 0.07769 0.12691 0.54255 0. 0.559(3)
Ni2 Ni2+ 2 b 0. 0. 0.5 0. 0.441(6)
O3 O2- 4 e 0.18056 0.19464 0.88697 0. 0.441(3)
O4 O2- 4 e 0.14809 0.21191 1.29186 0. 0.441(3)
C2 C3+ 4 e 0.07769 0.12691 1.04255 0. 0.441(3)
#End of TTdata_130392-ICSD