
#(C) 2021 by FIZ Karlsruhe - Leibniz Institute for Information Infrastructure.  All rights reserved.
data_24662-ICSD
_database_code_ICSD 24662
_audit_creation_date 1980-01-01
_audit_update_record 1988-11-07
_chemical_name_common Tetracarbonylnickel
_chemical_formula_structural 'Ni (C O)4'
_chemical_formula_sum 'C4 Ni1 O4'
_exptl_crystal_density_diffrn 1.78
_diffrn_ambient_temperature 218.
_citation_title 'The Crystal Structure of Nickel Carbonyl, Ni (C O)4'
loop_
_citation_id
_citation_journal_full
_citation_year
_citation_journal_volume
_citation_page_first
_citation_page_last
_citation_journal_id_ASTM
primary 'Acta Crystallographica' 1952 5 795 800 ACCRA9
loop_
_citation_author_citation_id
_citation_author_name
primary 'Ladell, J.'
primary 'Post, B.'
primary 'Fankuchen, I.'
_cell_length_a 10.84(2)
_cell_length_b 10.84(2)
_cell_length_c 10.84(2)
_cell_angle_alpha 90.
_cell_angle_beta 90.
_cell_angle_gamma 90.
_cell_volume 1273.76
_cell_formula_units_Z 8
_space_group_name_H-M_alt 'P a -3'
_space_group_IT_number 205
loop_
_space_group_symop_id
_space_group_symop_operation_xyz
1 '-z+1/2, x+1/2, y'
2 'z+1/2, x, -y+1/2'
3 'z, -x+1/2, y+1/2'
4 '-z, -x, -y'
5 'y, -z+1/2, x+1/2'
6 '-y+1/2, z+1/2, x'
7 'y+1/2, z, -x+1/2'
8 '-y, -z, -x'
9 'x+1/2, y, -z+1/2'
10 'x, -y+1/2, z+1/2'
11 '-x+1/2, y+1/2, z'
12 '-x, -y, -z'
13 'z+1/2, -x+1/2, -y'
14 '-z+1/2, -x, y+1/2'
15 '-z, x+1/2, -y+1/2'
16 'z, x, y'
17 '-y, z+1/2, -x+1/2'
18 'y+1/2, -z+1/2, -x'
19 '-y+1/2, -z, x+1/2'
20 'y, z, x'
21 '-x+1/2, -y, z+1/2'
22 '-x, y+1/2, -z+1/2'
23 'x+1/2, -y+1/2, -z'
24 'x, y, z'
loop_
_atom_type_symbol
_atom_type_oxidation_number
Ni0+ 0
C2+ 2
O2- -2
loop_
_atom_site_label
_atom_site_type_symbol
_atom_site_symmetry_multiplicity
_atom_site_Wyckoff_symbol
_atom_site_fract_x
_atom_site_fract_y
_atom_site_fract_z
_atom_site_B_iso_or_equiv
_atom_site_occupancy
Ni1 Ni0+ 8 c 0.123 0.123 0.123 3.1 1.
C1 C2+ 8 c 0.22 0.22 0.22 3.1 1.
C2 C2+ 24 d 0.032 0.02 0.22 3.1 1.
O1 O2- 8 c 0.281 0.281 0.281 3.1 1.
O2 O2- 24 d -.025 -.044 0.28 3.1 1.
#End of TTdata_24662-ICSD