
#(C) 2020 by FIZ Karlsruhe - Leibniz Institute for Information Infrastructure.  All rights reserved.
data_31853-ICSD
_database_code_ICSD 31853
_audit_creation_date 1980-01-01
_audit_update_record 2007-08-01
_chemical_name_common 'Nickel manganese(IV) oxide'
_chemical_formula_structural 'Ni Mn O3'
_chemical_formula_sum 'Mn1 Ni1 O3'
_chemical_name_structure_type Ilmenite#TiFeO3
_exptl_crystal_density_diffrn 5.69
_citation_title 'Crystal structure and ferrimagnetism in Ni Mn O3 and Co Mn O3'
loop_
_citation_id
_citation_journal_full
_citation_year
_citation_journal_volume
_citation_page_first
_citation_page_last
_citation_journal_id_ASTM
primary 'Physical Review' 1958 111 1046 1049 PHRVAO
loop_
_citation_author_citation_id
_citation_author_name
primary 'Cloud, W.H.'
_cell_length_a 5.343
_cell_length_b 5.343
_cell_length_c 5.343
_cell_angle_alpha 54.65
_cell_angle_beta 54.65
_cell_angle_gamma 54.65
_cell_volume 94.41
_cell_formula_units_Z 2
_space_group_name_H-M_alt 'R -3 R'
_space_group_IT_number 148
loop_
_space_group_symop_id
_space_group_symop_operation_xyz
1 '-z, -x, -y'
2 '-y, -z, -x'
3 '-x, -y, -z'
4 'z, x, y'
5 'y, z, x'
6 'x, y, z'
loop_
_atom_type_symbol
_atom_type_oxidation_number
Ni2+ 2
Mn4+ 4
O2- -2
loop_
_atom_site_label
_atom_site_type_symbol
_atom_site_symmetry_multiplicity
_atom_site_Wyckoff_symbol
_atom_site_fract_x
_atom_site_fract_y
_atom_site_fract_z
_atom_site_B_iso_or_equiv
_atom_site_occupancy
Ni1 Ni2+ 2 c 0.352 0.352 0.352 . 1.
Mn1 Mn4+ 2 c 0.148 0.148 0.148 . 1.
O1 O2- 6 f 0.56 -.06 0.25 . 1.
#End of TTdata_31853-ICSD