
#(C) 2021 by FIZ Karlsruhe - Leibniz Institute for Information Infrastructure.  All rights reserved.
data_84850-ICSD
_database_code_ICSD 84850
_audit_creation_date 1999-01-19
_chemical_name_common 'Lead oxide - lead sulfate(VI) - water(3/1/1)'
_chemical_formula_structural '(Pb O)3 (Pb (S O4)) (H2 O)'
_chemical_formula_sum 'H2 O8 Pb4 S1'
_chemical_name_structure_type (PbO)3PbSO4H2O
_exptl_crystal_density_diffrn 7.08
_citation_title

;
Crystal structure of tribasic lead sulfate (3(Pb O) . (Pb S O4) . (H2 O)) by
X-rays and neutrons: an intermediate phase in the production of lead acid
batteries
;
loop_
_citation_id
_citation_journal_full
_citation_year
_citation_journal_volume
_citation_page_first
_citation_page_last
_citation_journal_id_ASTM
primary 'Journal of Solid State Chemistry' 1997 132 173 181 JSSCBI
loop_
_citation_author_citation_id
_citation_author_name
primary 'Steele, I.M.'
primary 'Pluth, J.J.'
primary 'Richardson, J.W.jr.'
_cell_length_a 6.3682(2)
_cell_length_b 7.4539(3)
_cell_length_c 10.2971(4)
_cell_angle_alpha 75.33(3)
_cell_angle_beta 79.40(1)
_cell_angle_gamma 88.34(1)
_cell_volume 464.7
_cell_formula_units_Z 2
_space_group_name_H-M_alt 'P -1'
_space_group_IT_number 2
loop_
_space_group_symop_id
_space_group_symop_operation_xyz
1 '-x, -y, -z'
2 'x, y, z'
loop_
_atom_type_symbol
_atom_type_oxidation_number
Pb2+ 2
S6+ 6
O2- -2
H1+ 1
loop_
_atom_site_label
_atom_site_type_symbol
_atom_site_symmetry_multiplicity
_atom_site_Wyckoff_symbol
_atom_site_fract_x
_atom_site_fract_y
_atom_site_fract_z
_atom_site_U_iso_or_equiv
_atom_site_occupancy
Pb1 Pb2+ 2 i 0.2307(12) 0.6125(11) 0.0262(9) 0.022(3) 1.
Pb2 Pb2+ 2 i 0.2442(16) 0.1182(13) 0.0101(11) 0.051(4) 1.
Pb3 Pb2+ 2 i 0.7809(11) 0.5197(10) 0.3166(7) 0.025(2) 1.
Pb4 Pb2+ 2 i 0.8163(15) -.0025(15) 0.3204(10) 0.052(4) 1.
S1 S6+ 2 i 0.295(4) 0.240(3) 0.321(2) 0.018(5) 1.
O1 O2- 2 i 0.391(2) 0.210(2) 0.743(1) 0.023(3) 1.
O2 O2- 2 i 0.127(2) 0.414(2) -.089(1) 0.012(3) 1.
O3 O2- 2 i 0.044(3) 0.755(2) 0.271(2) 0.056(5) 1.
O4 O2- 2 i 0.883(3) 0.080(2) 0.097(2) 0.054(5) 1.
O5 O2- 2 i 0.131(2) 0.296(2) 0.241(2) 0.038(4) 1.
O6 O2- 2 i 0.524(3) 0.298(3) 0.240(2) 0.075(6) 1.
O7 O2- 2 i 0.254(2) 0.323(2) 0.441(1) 0.040(3) 1.
O8 O2- 2 i 0.278(2) 0.033(2) 0.375(2) 0.054(4) 1.
H1 H1+ 2 i 0.449(4) 0.838(3) 0.303(2) 0.04(6) 1.
H2 H1+ 2 i 0.162(4) 0.754(3) 0.318(3) 0.05(8) 1.
#End of TTdata_84850-ICSD