
#(C) 2021 by FIZ Karlsruhe - Leibniz Institute for Information Infrastructure.  All rights reserved.
data_87927-ICSD
_database_code_ICSD 87927
_audit_creation_date 2001-07-16
_chemical_name_common 'Pentalead tetraoxide sulfate(VI)'
_chemical_formula_structural '(Pb O)4 (Pb (S O4))'
_chemical_formula_sum 'O8 Pb5 S1'
_exptl_crystal_density_diffrn 8.1
_citation_title
'Crystal structure of tetrabasic lead sulfate (4(Pb O) . (Pb S O4))'
loop_
_citation_id
_citation_journal_full
_citation_year
_citation_journal_volume
_citation_page_first
_citation_page_last
_citation_journal_id_ASTM
primary 'Journal of the Electrochemical Society' 1998 145 528 533 JESOAN
loop_
_citation_author_citation_id
_citation_author_name
primary 'Steele, I.M.'
primary 'Pluth, J.J.'
_cell_length_a 7.297(1)
_cell_length_b 11.698(2)
_cell_length_c 11.498(2)
_cell_angle_alpha 90.
_cell_angle_beta 90.93(1)
_cell_angle_gamma 90.
_cell_volume 981.34
_cell_formula_units_Z 4
_space_group_name_H-M_alt 'P 1 21/c 1'
_space_group_IT_number 14
loop_
_space_group_symop_id
_space_group_symop_operation_xyz
1 'x, -y+1/2, z+1/2'
2 '-x, -y, -z'
3 '-x, y+1/2, -z+1/2'
4 'x, y, z'
loop_
_atom_type_symbol
_atom_type_oxidation_number
Pb2+ 2
S6+ 6
O2- -2
loop_
_atom_site_label
_atom_site_type_symbol
_atom_site_symmetry_multiplicity
_atom_site_Wyckoff_symbol
_atom_site_fract_x
_atom_site_fract_y
_atom_site_fract_z
_atom_site_B_iso_or_equiv
_atom_site_occupancy
Pb1 Pb2+ 4 e 0.10983(5) 0.24462(3) 0.38620(3) . 1.
Pb2 Pb2+ 4 e 0.12241(5) 0.91011(3) 0.38955(3) . 1.
Pb3 Pb2+ 4 e 0.62965(5) 0.25913(3) 0.38722(3) . 1.
Pb4 Pb2+ 4 e 0.37523(5) 0.06203(3) 0.61724(3) . 1.
Pb5 Pb2+ 4 e 0.86630(6) 0.42210(3) 0.62880(3) . 1.
S1 S6+ 4 e 0.3578(4) 0.1048(2) 0.1518(2) . 1.
O1 O2- 4 e 0.8678(8) -.0861(5) 0.5086(5) . 1.
O2 O2- 4 e 0.6116(8) 0.0986(5) 0.4979(5) . 1.
O3 O2- 4 e 0.8716(8) 0.2756(5) 0.5125(5) . 1.
O4 O2- 4 e 0.8623(10) 0.1738(7) 0.2921(6) . 1.
O5 O2- 4 e 0.3702(11) 0.0916(6) 0.2805(6) . 1.
O6 O2- 4 e 0.2384(19) 0.1987(10) 0.1264(9) . 1.
O7 O2- 4 e 0.5338(15) 0.1328(17) 0.1084(9) . 1.
O8 O2- 4 e 0.2781(23) 0.0051(9) 0.1019(8) . 1.
loop_
_atom_site_aniso_label
_atom_site_aniso_type_symbol
_atom_site_aniso_U_11
_atom_site_aniso_U_22
_atom_site_aniso_U_33
_atom_site_aniso_U_12
_atom_site_aniso_U_13
_atom_site_aniso_U_23
Pb1 Pb2+ 0.0177(2) 0.0137(2) 0.0181(2) -.0015(1) 0.0024(1) 0.0026(1)
Pb2 Pb2+ 0.0139(2) 0.0158(2) 0.0123(2) 0.0008(1) -.0003(1) -.0007(1)
Pb3 Pb2+ 0.0157(2) 0.0171(2) 0.0223(2) -.0003(1) -.0047(1) 0.0061(1)
Pb4 Pb2+ 0.0143(2) 0.0202(2) 0.0142(2) 0.0007(1) 0.0005(1) -.0027(1)
Pb5 Pb2+ 0.0396(3) 0.0150(2) 0.0172(2) -.0009(2) 0.0047(2) -.0022(1)
S1 S6+ 0.018(1) 0.019(1) 0.017(1) -.001(1) -.003(1) 0.000(1)
O1 O2- 0.014(3) 0.014(3) 0.014(3) 0.000(2) 0.000(2) 0.001(2)
O2 O2- 0.011(3) 0.013(3) 0.016(3) -.002(2) 0.000(2) 0.002(2)
O3 O2- 0.019(3) 0.011(3) 0.013(3) 0.003(2) -.001(2) 0.000(2)
O4 O2- 0.026(4) 0.038(4) 0.019(3) 0.000(3) -.003(3) -.010(3)
O5 O2- 0.046(5) 0.028(4) 0.023(4) 0.001(3) -.001(3) -.001(3)
O6 O2- 0.150(12) 0.074(8) 0.051(6) 0.066(9) -.043(7) -.016(6)
O7 O2- 0.035(6) 0.302(21) 0.041(6) -.051(9) 0.008(5) 0.023(10)
O8 O2- 0.213(16) 0.041(6) 0.041(6) -.035(8) -.023(8) -.012(5)
#End of TTdata_87927-ICSD