
#(C) 2020 by FIZ Karlsruhe - Leibniz Institute for Information Infrastructure.  All rights reserved.
data_8491-ICSD
_database_code_ICSD 8491
_audit_creation_date 2020-08-01
_chemical_name_common 'Lead dioxide'
_chemical_formula_structural 'Pb O2'
_chemical_formula_sum 'O2 Pb1'
_chemical_name_structure_type Rutile#TiO2
_chemical_name_mineral Plattnerite
_exptl_crystal_density_diffrn 9.56
_diffrn_ambient_temperature 90.
_citation_title

;
Tetravalent lead in nature – plattnerite crystals from Mine du Pradet (France)
and Mount Trevasco (Italy)
;
loop_
_citation_id
_citation_journal_full
_citation_year
_citation_journal_volume
_citation_page_first
_citation_page_last
_citation_journal_id_ASTM
primary 'Zeitschrift fuer Naturforschung, B: A Journal of Chemical Sciences'
2019 74 427 432 ZNBSEN
loop_
_citation_author_citation_id
_citation_author_name
primary 'Paulsen, Christian'
primary 'Benndorf, Christopher'
primary 'Kösters, Jutta'
primary 'Galéa-Clolus, Valérie'
primary 'Clolus, Pierre'
primary 'Hoffmann, Rolf-Dieter'
primary 'Pöttgen, Rainer'
_cell_length_a 4.9533(5)
_cell_length_b 4.9533(5)
_cell_length_c 3.3867(4)
_cell_angle_alpha 90.
_cell_angle_beta 90.
_cell_angle_gamma 90.
_cell_volume 83.09
_cell_formula_units_Z 2
_space_group_name_H-M_alt 'P 42/m n m'
_space_group_IT_number 136
loop_
_space_group_symop_id
_space_group_symop_operation_xyz
1 '-y+1/2, x+1/2, -z+1/2'
2 'y+1/2, -x+1/2, -z+1/2'
3 'y, x, -z'
4 '-y, -x, -z'
5 'y+1/2, -x+1/2, z+1/2'
6 '-y+1/2, x+1/2, z+1/2'
7 '-y, -x, z'
8 'y, x, z'
9 'x+1/2, -y+1/2, -z+1/2'
10 '-x+1/2, y+1/2, -z+1/2'
11 'x, y, -z'
12 '-x, -y, -z'
13 '-x+1/2, y+1/2, z+1/2'
14 'x+1/2, -y+1/2, z+1/2'
15 '-x, -y, z'
16 'x, y, z'
loop_
_atom_type_symbol
_atom_type_oxidation_number
Pb4+ 4
O2- -2
loop_
_atom_site_label
_atom_site_type_symbol
_atom_site_symmetry_multiplicity
_atom_site_Wyckoff_symbol
_atom_site_fract_x
_atom_site_fract_y
_atom_site_fract_z
_atom_site_U_iso_or_equiv
_atom_site_occupancy
Pb1 Pb4+ 2 a 0 0 0 0.0115(2) 1
O1 O2- 4 f 0.3066(13) 0.3066(13) 0 0.0144(17) 1
loop_
_atom_site_aniso_label
_atom_site_aniso_type_symbol
_atom_site_aniso_U_11
_atom_site_aniso_U_22
_atom_site_aniso_U_33
_atom_site_aniso_U_12
_atom_site_aniso_U_13
_atom_site_aniso_U_23
Pb1 Pb4+ 0.0124(3) 0.0124(3) 0.0099(4) -0.0005(3) 0 0
O1 O2- 0.013(2) 0.013(2) 0.017(4) -0.002(4) 0 0
#End of TTdata_8491-ICSD