
#(C) 2020 by FIZ Karlsruhe - Leibniz Institute for Information Infrastructure.  All rights reserved.
data_415268-ICSD
_database_code_ICSD 415268
_audit_creation_date 2006-10-01
_chemical_name_common 'Lead dioxide - alpha'
_chemical_formula_structural 'Pb O2'
_chemical_formula_sum 'O2 Pb1'
_chemical_name_structure_type PbO2(alpha)#Fe2N.94
_exptl_crystal_density_diffrn 9.79
_citation_title

;
High-pressure synthesis of alpha-Pb O2 and its crystal structure at 293, 203,
and 113 K from single crystal diffraction data
;
loop_
_citation_id
_citation_journal_full
_citation_year
_citation_journal_volume
_citation_page_first
_citation_page_last
_citation_journal_id_ASTM
primary 'Solid State Sciences' 2005 7 1363 1368 SSSCFJ
loop_
_citation_author_citation_id
_citation_author_name
primary 'Filatov, S.'
primary 'Bendeliani, N.'
primary 'Albert, B.'
primary 'Kopf, J.'
primary 'Dyuzheva, T.'
primary 'Lityagina, L.'
_cell_length_a 4.9858(2)
_cell_length_b 5.9596(3)
_cell_length_c 5.4626(2)
_cell_angle_alpha 90.
_cell_angle_beta 90.
_cell_angle_gamma 90.
_cell_volume 162.31
_cell_formula_units_Z 4
_space_group_name_H-M_alt 'P b c n'
_space_group_IT_number 60
loop_
_space_group_symop_id
_space_group_symop_operation_xyz
1 'x, -y, z+1/2'
2 '-x+1/2, y+1/2, z'
3 'x+1/2, y+1/2, -z+1/2'
4 '-x, -y, -z'
5 '-x, y, -z+1/2'
6 'x+1/2, -y+1/2, -z'
7 '-x+1/2, -y+1/2, z+1/2'
8 'x, y, z'
loop_
_atom_type_symbol
_atom_type_oxidation_number
Pb4+ 4
O2- -2
loop_
_atom_site_label
_atom_site_type_symbol
_atom_site_symmetry_multiplicity
_atom_site_Wyckoff_symbol
_atom_site_fract_x
_atom_site_fract_y
_atom_site_fract_z
_atom_site_U_iso_or_equiv
_atom_site_occupancy
Pb1 Pb4+ 4 c 0. 0.67759(4) 0.25 0.00618(13) 1
O1 O2- 8 d -0.2687(11) 0.9022(8) 0.0763(10) 0.0092(9) 1
loop_
_atom_site_aniso_label
_atom_site_aniso_type_symbol
_atom_site_aniso_U_11
_atom_site_aniso_U_22
_atom_site_aniso_U_33
_atom_site_aniso_U_12
_atom_site_aniso_U_13
_atom_site_aniso_U_23
Pb1 Pb4+ 0.00547(17) 0.00702(18) 0.00603(16) 0. -0.0004(2) 0.
O1 O2- 0.009(2) 0.0096(19) 0.0086(19) 0.005(2) -0.0049(19) -0.0007(19)
#End of TTdata_415268-ICSD