
#(C) 2020 by FIZ Karlsruhe - Leibniz Institute for Information Infrastructure.  All rights reserved.
data_154273-ICSD
_database_code_ICSD 154273
_audit_creation_date 2007-04-01
_chemical_name_common 'Lead sulfate(VI)'
_chemical_formula_structural 'Pb (S O4)'
_chemical_formula_sum 'O4 Pb1 S1'
_chemical_name_structure_type Barite#BaSO4
_exptl_crystal_density_diffrn 6.34
_citation_title

;
Crystal structure and Raman spectral studies of (Ba S O4) - (Pb S O4) solid
solution
;
loop_
_citation_id
_citation_journal_full
_citation_year
_citation_journal_volume
_citation_page_first
_citation_page_last
_citation_journal_id_ASTM
primary 'Zeitschrift fuer Kristallographie' 2005 220 1 9 ZEKRDZ
loop_
_citation_author_citation_id
_citation_author_name
primary 'Lee Jiann-Shing'
primary 'Wang Hsiu-Ru'
primary 'Iizuka, Y.'
primary 'Yu Shucheng'
_cell_length_a 8.475(2)
_cell_length_b 5.396(1)
_cell_length_c 6.950(1)
_cell_angle_alpha 90.
_cell_angle_beta 90.
_cell_angle_gamma 90.
_cell_volume 317.83
_cell_formula_units_Z 4
_space_group_name_H-M_alt 'P n m a'
_space_group_IT_number 62
loop_
_space_group_symop_id
_space_group_symop_operation_xyz
1 'x+1/2, y, -z+1/2'
2 'x, -y+1/2, z'
3 '-x+1/2, y+1/2, z+1/2'
4 '-x, -y, -z'
5 '-x+1/2, -y, z+1/2'
6 '-x, y+1/2, -z'
7 'x+1/2, -y+1/2, -z+1/2'
8 'x, y, z'
loop_
_atom_type_symbol
_atom_type_oxidation_number
Pb2+ 2
S6+ 6
O2- -2
loop_
_atom_site_label
_atom_site_type_symbol
_atom_site_symmetry_multiplicity
_atom_site_Wyckoff_symbol
_atom_site_fract_x
_atom_site_fract_y
_atom_site_fract_z
_atom_site_B_iso_or_equiv
_atom_site_occupancy
Pb1 Pb2+ 4 c 0.1879(1) 0.25 0.1672(1) . 1.
S1 S6+ 4 c 0.4359(3) 0.75 0.1844(4) . 1.
O1 O2- 4 c 0.3072(10) 0.75 0.0407(14) . 1.
O2 O2- 8 d 0.4187(7) 0.9743(12) 0.3094(14) . 1.
O3 O2- 4 c 0.5929(11) 0.75 0.0956(14) . 1.
loop_
_atom_site_aniso_label
_atom_site_aniso_type_symbol
_atom_site_aniso_U_11
_atom_site_aniso_U_22
_atom_site_aniso_U_33
_atom_site_aniso_U_12
_atom_site_aniso_U_13
_atom_site_aniso_U_23
Pb1 Pb2+ 0.0023(1) 0.032(1) 0.037(1) 0. 0.001(1) 0.
S1 S6+ 0.016(2) 0.019(2) 0.029(2) 0. -0.001(1) 0.
O1 O2- 0.024(3) 0.030(4) 0.031(5) 0. 0.005(3) 0.
O2 O2- 0.028(2) 0.021(3) 0.036(3) 0.000(2) -0.000(2) 0.001(3)
O3 O2- 0.025(3) 0.043(6) 0.041(5) 0. 0.010(3) 0.
#End of TTdata_154273-ICSD